LAMMPS data file via write_data, version 2 Aug 2023, timestep = 334, units = metal

27847 atoms
1 atom types

0 75.9648 xlo xhi
0 75.9648 ylo yhi
0 75.9648 zlo zhi

Masses

1 183.84

Atoms # atomic

1 1 0.7921030044820485 0.7921030044820991 0.7921010394360856 0 0 0
2 1 2.359468103386852 2.3594681033866 2.3594661928356455 0 0 0
3 1 3.951567734209936 0.779983208767717 0.77998140594616 0 0 0
5 1 7.111457769928262 0.7687380464719052 0.768736404234582 0 0 0
4 1 5.519063652593269 2.3472468719406154 2.3472451261580884 0 0 0
6 1 8.67940887645451 2.336046758128005 2.3360451780110036 0 0 0
7 1 10.272164969398352 0.7591783822077809 0.7591768914786269 0 0 0
8 1 11.840885330943282 2.3266712832183893 2.326669839348711 0 0 0
9 1 13.43401681703289 0.7519882322990389 0.7519868577265977 0 0 0
11 1 16.597247885444002 0.7476657518469255 0.7476644417528853 0 0 0
10 1 15.00379228507561 2.3197875528392298 2.3197861884257276 0 0 0
12 1 18.168307649143806 2.3158703951302515 2.3158690922635947 0 0 0
13 1 19.761975490800985 0.7464787636402586 0.7464775169021004 0 0 0
14 1 21.334462615715594 2.315156761279798 2.315155461721496 0 0 0
15 1 22.92819022170763 0.7484418300135234 0.7484405933673532 0 0 0
17 1 26.095760607324934 0.7533295317362633 0.753328260455914 0 0 0
16 1 24.502130592740894 2.317627025563858 2.3176256999363067 0 0 0
18 1 27.671053069037864 2.323020621805464 2.3230192336925026 0 0 0
19 1 29.26446020558637 0.7607236162411444 0.7607222582714824 0 0 0
20 1 30.840896810020663 2.330885801189184 2.3308842965055385 0 0 0
21 1 32.4340115284051 0.7700732883394217 0.770071824267918 0 0 0
22 1 34.01131090986039 2.3406462992082964 2.340644618142262 0 0 0
23 1 35.60412220614654 0.7807536531988628 0.7807520278724513 0 0 0
24 1 37.18196445910151 2.3516581859364707 2.351656304596962 0 0 0
49 1 0.7799832087678666 3.9515677342098665 0.7799814059457905 0 0 0
51 1 3.9394130910034777 3.939413091003496 0.767437622988498 0 0 0
53 1 7.099380517235502 3.9279600038606786 0.7553643298012648 0 0 0
55 1 10.260291675960092 3.9180396880172275 0.7446173419255601 0 0 0
57 1 13.422488737683901 3.9103747229507153 0.735952138410414 0 0 0
59 1 16.586212732658236 3.9055179556322637 0.7299655230020018 0 0 0
61 1 19.751558826740663 3.903800383032795 0.7270461473631961 0 0 0
63 1 22.91848848959323 3.905292460276733 0.7273380970754884 0 0 0
65 1 26.086795609006817 3.909809647661599 0.7307442710581824 0 0 0
67 1 29.256179576330847 3.9169419579287053 0.7369502018634857 0 0 0
69 1 32.426295330152996 3.9261236667084702 0.7454830061252741 0 0 0
71 1 35.59680351407822 3.93670373648472 0.7557669333922312 0 0 0
97 1 0.7687380464718776 7.111457769928236 0.7687364042346513 0 0 0
50 1 2.3472468719405137 5.51906365259333 2.3472451261581586 0 0 0
99 1 3.927960003860828 7.099380517235537 0.7553643298013024 0 0 0
101 1 7.0878223442687425 7.087822344268951 0.7420875206558621 0 0 0
52 1 5.506582391366349 5.506582391366263 2.334003396200107 0 0 0
54 1 8.66678819712717 5.49495393034226 2.3214196790655945 0 0 0
103 1 10.248751657459277 7.077620849489645 0.7298202248707862 0 0 0
56 1 11.828275192487789 5.485015173193967 2.310373606694696 0 0 0
105 1 13.411113118477019 7.069528705718318 0.719405420805815 0 0 0
107 1 16.575164955460398 7.064150826593704 0.711557470728769 0 0 0
58 1 14.991372784951027 5.4774882493164645 2.3016385047503136 0 0 0
60 1 18.156282611196673 5.472921389486174 2.2958242672943956 0 0 0
109 1 19.74101608849166 7.061885282312762 0.706807613747107 0 0 0
62 1 21.3230334783092 5.471628012891585 2.2933191087996545 0 0 0
111 1 22.908590921637373 7.062870784907064 0.7054559931540593 0 0 0
64 1 24.491463058456972 5.473655133307602 2.294256195607372 0 0 0
113 1 26.07763770602549 7.066968315984406 0.707544143458157 0 0 0
66 1 27.661240953452715 5.4787701104109345 2.2984942913569575 0 0 0
115 1 29.247776299768606 7.073781606856437 0.7128599443613628 0 0 0
68 1 30.831941588734857 5.486509574346403 2.305655987636307 0 0 0
117 1 32.41858110096565 7.082729488892627 0.7209856563859472 0 0 0
119 1 35.58965181784728 7.093135299389969 0.7313586497932636 0 0 0
70 1 34.00313044905065 5.496260763805734 2.315196402813903 0 0 0
72 1 37.17441687181481 5.507341184332144 2.3264701147761246 0 0 0
98 1 2.3360467581277065 8.679408876454497 2.336045178011039 0 0 0
100 1 5.494953930342354 8.666788197127127 2.321419679065375 0 0 0
102 1 8.65483040577355 8.654830405773694 2.3071209539623325 0 0 0
104 1 11.816122975447927 8.644390796435847 2.294115217827099 0 0 0
106 1 14.979202832611083 8.636236576699998 2.283294739685425 0 0 0
108 1 18.144310169564893 8.630985400031491 2.2754200282412205 0 0 0
110 1 21.311503554909905 8.629039147179702 2.2710589099797285 0 0 0
112 1 24.480609471968023 8.630523119140816 2.270520992832509 0 0 0
114 1 27.65124010603683 8.63525246553024 2.2738043872344633 0 0 0
116 1 30.82287085978067 8.642762267168187 2.2805992428239694 0 0 0
118 1 33.99496614822225 8.65240560654759 2.2903575329115666 0 0 0
120 1 37.16705967856816 8.663465248446844 2.3023879530688762 0 0 0
145 1 0.7591783822076501 10.272164969398315 0.7591768914784964 0 0 0
146 1 2.3266712832182868 11.840885330943253 2.326669839348799 0 0 0
147 1 3.918039688017531 10.260291675960124 0.7446173419254664 0 0 0
149 1 7.0776208494896204 10.248751657459186 0.7298202248708539 0 0 0
148 1 5.485015173193878 11.82827519248778 2.3103736066946583 0 0 0
150 1 8.64439079643586 11.816122975448026 2.2941152178269095 0 0 0
151 1 10.238373447500738 10.23837344750081 0.7157651575189397 0 0 0
152 1 11.80528393818793 11.80528393818786 2.278949404912549 0 0 0
153 1 13.400692960156505 10.229926874431417 0.7033907476115291 0 0 0
154 1 14.968114818293344 11.796555588511659 2.2658907381150346 0 0 0
155 1 16.56486847086866 10.224060923527539 0.6935399286855871 0 0 0
156 1 18.13318041650737 11.790616195640572 2.2558577008023506 0 0 0
157 1 19.73103360908842 10.221240016002145 0.6869013540487416 0 0 0
158 1 21.30059172406955 11.787954481547684 2.249610252155918 0 0 0
159 1 22.89911690765997 10.221675899487614 0.6839508593765936 0 0 0
161 1 26.068833823682986 10.225287405564192 0.6848882809503948 0 0 0
160 1 24.470204662715062 11.78878970949266 2.2476617969224244 0 0 0
162 1 27.641602867462442 11.793006769661309 2.250176766629669 0 0 0
163 1 29.239733327879737 10.231701941291991 0.6896093286898108 0 0 0
164 1 30.81416997113143 11.800159647447705 2.256920610422959 0 0 0
165 1 32.411302335507244 10.240329102368024 0.6977342598156185 0 0 0
167 1 35.58306618408153 10.25047162237501 0.7086780526310571 0 0 0
166 1 33.98725572642369 11.809578023990849 2.267316412992586 0 0 0
168 1 37.160296733981376 11.820516174529153 2.2805827777181373 0 0 0
193 1 0.7519882322988942 13.434016817032862 0.7519868577266053 0 0 0
195 1 3.9103747229506967 13.4224887376839 0.7359521384104294 0 0 0
197 1 7.069528705718466 13.411113118477068 0.7194054208059505 0 0 0
199 1 10.229926874431316 13.40069296015655 0.7033907476116941 0 0 0
201 1 13.391998500516292 13.391998500516351 0.6889414499823037 0 0 0
203 1 16.55607316101654 13.385710125607494 0.6770317527387616 0 0 0
205 1 19.72232713055214 13.382349049167546 0.6685131133458778 0 0 0
207 1 22.89072131076071 13.382202693800247 0.6640508865544578 0 0 0
209 1 26.060969581640478 13.385256395160877 0.6640222764929024 0 0 0
211 1 29.23257114426261 13.391178521329797 0.6684454948567224 0 0 0
213 1 32.404926033682095 13.399382514469407 0.6769710839396363 0 0 0
215 1 35.57747409963785 13.409161010884679 0.6889606889006054 0 0 0
241 1 0.7476657518466968 16.597247885443977 0.7476644417527077 0 0 0
194 1 2.3197875528391823 15.00379228507567 2.3197861884258306 0 0 0
243 1 3.9055179556322694 16.586212732658314 0.7299655230020329 0 0 0
245 1 7.064150826593704 16.57516495546046 0.7115574707287916 0 0 0
196 1 5.477488249316755 14.991372784951045 2.3016385047502865 0 0 0
198 1 8.63623657669986 14.979202832610829 2.2832947396852883 0 0 0
200 1 11.796555588511612 14.968114818293483 2.2658907381149502 0 0 0
247 1 10.224060923527638 16.564868470868603 0.6935399286856315 0 0 0
249 1 13.385710125607329 16.55607316101657 0.6770317527387222 0 0 0
202 1 14.958917926861474 14.95891792686145 2.2505568534557314 0 0 0
251 1 16.549473587082538 16.54947358708269 0.6631294331974078 0 0 0
204 1 18.12368870812466 14.95233603182925 2.2383659995440994 0 0 0
206 1 21.291053484367126 14.948936738292096 2.2302736806160377 0 0 0
253 1 19.71558306426348 16.545633606003143 0.6528468873871546 0 0 0
255 1 22.88405641600701 16.544908921487306 0.647040074346067 0 0 0
257 1 26.05464280795286 16.547352989250598 0.646277500188821 0 0 0
208 1 24.460937035506564 14.949037459926423 2.2270112501282324 0 0 0
210 1 27.632938810837313 14.952615433879267 2.2289410316436764 0 0 0
259 1 29.22682472054584 16.552695863000558 0.6507163817973665 0 0 0
212 1 30.806377815274786 14.959273769165197 2.2359282526864526 0 0 0
261 1 32.39993122757529 16.56037520370355 0.6600423401853719 0 0 0
263 1 35.57330765346521 16.569689009901076 0.6735367294155016 0 0 0
214 1 33.98048021805915 14.968336426786564 2.2473559412400266 0 0 0
216 1 37.15456374227553 14.979042887646933 2.2623122264306876 0 0 0
242 1 2.3158703951303545 18.168307649143657 2.3158690922635325 0 0 0
244 1 5.472921389486127 18.156282611196605 2.295824267294334 0 0 0
246 1 8.63098540003143 18.14431016956483 2.2754200282412653 0 0 0
248 1 11.790616195640649 18.133180416507198 2.2558577008023724 0 0 0
250 1 14.952336031829338 18.123688708124718 2.2383659995440945 0 0 0
252 1 18.116584217291564 18.116584217291656 2.2241611109725707 0 0 0
254 1 21.28363843514785 18.112496937794873 2.2143840585140824 0 0 0
256 1 24.453522148243987 18.111837894481052 2.2099840774402857 0 0 0
258 1 27.625897354556244 18.114687681607332 2.2115400727100982 0 0 0
260 1 30.80006557997277 18.120724586881277 2.2190500880791273 0 0 0
262 1 33.97514025682371 18.129304469511336 2.231873793814711 0 0 0
264 1 37.15029303754326 18.13966424134759 2.248930731684037 0 0 0
289 1 0.7464787636401212 19.76197549080089 0.7464775169019456 0 0 0
290 1 2.3151567612800066 21.33446261571574 2.3151554617216723 0 0 0
291 1 3.9038003830326615 19.75155882674052 0.7270461473631202 0 0 0
293 1 7.061885282312733 19.741016088491747 0.7068076137471038 0 0 0
292 1 5.471628012891705 21.32303347830936 2.2933191087996514 0 0 0
294 1 8.629039147179496 21.311503554910036 2.2710589099796428 0 0 0
295 1 10.221240016002243 19.731033609088275 0.6869013540485844 0 0 0
296 1 11.787954481547933 21.300591724069722 2.2496102521561347 0 0 0
297 1 13.382349049167535 19.722327130552124 0.6685131133457545 0 0 0
298 1 14.948936738292002 21.291053484367204 2.2302736806162864 0 0 0
299 1 16.545633606003108 19.715583064263377 0.652846887387152 0 0 0
300 1 18.11249693779502 21.283638435147818 2.214384058514047 0 0 0
301 1 19.711390170381765 19.711390170381822 0.6410682598771824 0 0 0
302 1 21.27901902221908 21.279019022219266 2.203249294784872 0 0 0
303 1 22.87971129187106 19.71015112828663 0.6342129634066149 0 0 0
305 1 26.050410648690434 19.711997207451866 0.6330373011255962 0 0 0
304 1 24.448638247002602 21.27767907983045 2.198026427689477 0 0 0
306 1 27.621117472434072 21.279788792403796 2.199500901871653 0 0 0
307 1 29.22299656879919 19.716714360936617 0.6378468396930992 0 0 0
308 1 30.795791984403667 21.285125620357448 2.2078214432022714 0 0 0
309 1 32.39675961624932 19.723794512708384 0.6483703762451382 0 0 0
311 1 35.5709522063663 19.732562925348144 0.6637948189853214 0 0 0
310 1 33.97170197878693 21.29311431383831 2.2223532505561625 0 0 0
312 1 37.14786792678658 21.303015914117548 2.241826480940766 0 0 0
337 1 0.7484418300135928 22.92819022170777 0.7484405933672583 0 0 0
339 1 3.90529246027668 22.91848848959326 0.727338097075455 0 0 0
341 1 7.062870784907038 22.90859092163722 0.7054559931539415 0 0 0
343 1 10.221675899487613 22.89911690766011 0.6839508593766133 0 0 0
345 1 13.382202693800163 22.890721310760668 0.6640508865545018 0 0 0
347 1 16.544908921487295 22.884056416006914 0.6470400743460003 0 0 0
349 1 19.71015112828653 22.879711291871132 0.6342129634067352 0 0 0
351 1 22.8781204616981 22.878120461698025 0.6267683719926002 0 0 0
353 1 26.048709314675452 22.879460733079622 0.6256307403532134 0 0 0
355 1 29.221486153944454 22.88358509374881 0.6312309283968202 0 0 0
357 1 32.395746609261785 22.890051764078695 0.6433398756508488 0 0 0
359 1 35.57068002231328 22.898236907805977 0.6610440061310997 0 0 0
385 1 0.7533295317363768 26.095760607325033 0.7533282604560592 0 0 0
338 1 2.3176270255636324 24.5021305927409 2.3176256999361993 0 0 0
387 1 3.9098096476615605 26.086795609006675 0.7307442710580629 0 0 0
340 1 5.473655133307827 24.491463058456723 2.29425619560745 0 0 0
389 1 7.0669683159846 26.07763770602568 0.7075441434580837 0 0 0
342 1 8.63052311914075 24.480609471968044 2.2705209928323957 0 0 0
391 1 10.225287405564167 26.06883382368318 0.6848882809504934 0 0 0
344 1 11.788789709492681 24.470204662714877 2.2476617969224306 0 0 0
393 1 13.38525639516065 26.060969581640403 0.6640222764924917 0 0 0
395 1 16.54735298925047 26.05464280795285 0.646277500188949 0 0 0
346 1 14.949037459926428 24.460937035506507 2.2270112501283648 0 0 0
348 1 18.111837894481212 24.45352214824404 2.209984077440154 0 0 0
397 1 19.711997207451912 26.05041064869032 0.6330373011256859 0 0 0
350 1 21.277679079830357 24.448638247002673 2.1980264276894204 0 0 0
399 1 22.87946073307957 26.048709314675357 0.6256307403532684 0 0 0
401 1 26.04974408878749 26.049744088787566 0.6251145397438417 0 0 0
352 1 24.446820486057206 24.446820486057156 2.192477120890583 0 0 0
354 1 27.61913581161243 24.448305438426704 2.194293156723995 0 0 0
403 1 29.222497284251617 26.053417586471426 0.6320040906370469 0 0 0
356 1 30.794029219742768 24.452952004587083 2.203744553160131 0 0 0
405 1 32.3970553587708 26.059349960605147 0.6460653862571522 0 0 0
358 1 33.970535400049734 24.460286050974208 2.2202182705371114 0 0 0
407 1 35.57259057199158 26.06698939959723 0.6662782143197662 0 0 0
360 1 37.14755563002456 24.46963503604131 2.242273568410227 0 0 0
386 1 2.3230206218053167 27.671053069037697 2.3230192336927167 0 0 0
388 1 5.478770110410889 27.661240953452936 2.298494291357035 0 0 0
390 1 8.635252465530202 27.651240106036905 2.2738043872344513 0 0 0
392 1 11.793006769661256 27.641602867462456 2.2501767666293992 0 0 0
394 1 14.95261543387937 27.63293881083747 2.2289410316438265 0 0 0
396 1 18.114687681607375 27.62589735455624 2.211540072710209 0 0 0
398 1 21.279788792403792 27.621117472433884 2.1995009018717706 0 0 0
400 1 24.44830543842673 27.619135811612313 2.194293156724018 0 0 0
402 1 27.620231961033557 27.62023196103362 2.197005685758892 0 0 0
404 1 30.795060013630803 27.624330222795226 2.2079732785815387 0 0 0
406 1 33.97184816540386 27.63103244260803 2.226538149423758 0 0 0
408 1 37.14946012040132 27.63977624042602 2.2511447324098874 0 0 0
433 1 0.7607236162409273 29.26446020558633 0.7607222582715857 0 0 0
434 1 2.330885801189378 30.84089681002078 2.330884296505315 0 0 0
435 1 3.9169419579287816 29.25617957633106 0.7369502018635714 0 0 0
437 1 7.073781606856578 29.247776299768493 0.7128599443616156 0 0 0
436 1 5.486509574346307 30.83194158873466 2.305655987636252 0 0 0
438 1 8.642762267168033 30.82287085978078 2.280599242823744 0 0 0
439 1 10.231701941291984 29.239733327879645 0.6896093286899045 0 0 0
440 1 11.800159647447773 30.8141699711312 2.256920610422908 0 0 0
441 1 13.39117852132974 29.23257114426271 0.6684454948567764 0 0 0
443 1 16.55269586300063 29.226824720545768 0.650716381797489 0 0 0
442 1 14.95927376916501 30.806377815274807 2.235928252686488 0 0 0
444 1 18.120724586881394 30.800065579972806 2.2190500880791473 0 0 0
445 1 19.716714360936532 29.222996568799363 0.6378468396929413 0 0 0
446 1 21.2851256203572 30.795791984403934 2.2078214432022505 0 0 0
447 1 22.883585093748877 29.221486153944294 0.631230928396554 0 0 0
449 1 26.053417586471227 29.22249728425161 0.6320040906370126 0 0 0
448 1 24.45295200458734 30.79402921974271 2.20374455316026 0 0 0
450 1 27.62433022279511 30.795060013630845 2.207973278581489 0 0 0
451 1 29.225961087113657 29.225961087113323 0.6407078470166381 0 0 0
452 1 30.798846323575837 30.798846323575667 2.2208322703991596 0 0 0
453 1 32.40062090369838 29.231551498511372 0.6570526713314179 0 0 0
454 1 33.97562305787694 30.805070310190366 2.24159898089395 0 0 0
455 1 35.57657750584175 29.238773857491726 0.679854833876773 0 0 0
456 1 37.153502808447314 30.813232753710597 2.26852112664086 0 0 0
481 1 0.7700732883396907 32.43401152840502 0.7700718242679664 0 0 0
483 1 3.9261236667084582 32.4262953301529 0.7454830061252707 0 0 0
485 1 7.082729488892707 32.41858110096576 0.7209856563861013 0 0 0
487 1 10.240329102368063 32.41130233550726 0.6977342598156316 0 0 0
489 1 13.399382514469439 32.404926033682216 0.6769710839394867 0 0 0
491 1 16.560375203703398 32.399931227575095 0.6600423401852761 0 0 0
493 1 19.723794512708537 32.39675961624947 0.6483703762454255 0 0 0
495 1 22.89005176407864 32.395746609262005 0.6433398756508834 0 0 0
497 1 26.059349960605022 32.397055358770935 0.6460653862572214 0 0 0
499 1 29.23155149851135 32.40062090369849 0.6570526713313364 0 0 0
501 1 32.40614233319068 32.406142333190544 0.6758890137850706 0 0 0
503 1 35.58233756414751 32.413165914467626 0.7012000338764546 0 0 0
482 1 2.3406462992080987 34.01131090986047 2.3406446181421496 0 0 0
529 1 0.7807536531990298 35.60412220614648 0.780752027872523 0 0 0
531 1 3.936703736484551 35.59680351407813 0.7557669333921646 0 0 0
533 1 7.093135299390048 35.5896518178473 0.7313586497933339 0 0 0
484 1 5.496260763805941 34.0031304490504 2.3151964028139145 0 0 0
486 1 8.65240560654755 33.99496614822212 2.290357532911489 0 0 0
535 1 10.25047162237515 35.583066184081176 0.7086780526311204 0 0 0
488 1 11.809578023990806 33.987255726423975 2.267316412992496 0 0 0
537 1 13.409161010884377 35.5774740996379 0.6889606889006166 0 0 0
539 1 16.56968900990119 35.5733076534652 0.6735367294154625 0 0 0
490 1 14.968336426786681 33.980480218058986 2.2473559412401114 0 0 0
492 1 18.129304469511386 33.975140256823714 2.2318737938145636 0 0 0
541 1 19.73256292534828 35.57095220636633 0.6637948189853836 0 0 0
494 1 21.293114313838032 33.97170197878668 2.222353250556205 0 0 0
543 1 22.89823690780599 35.57068002231283 0.6610440061309154 0 0 0
496 1 24.46028605097442 33.97053540004981 2.2202182705369027 0 0 0
545 1 26.066989399597073 35.57259057199159 0.6662782143200326 0 0 0
498 1 27.631032442607843 33.9718481654037 2.226538149423824 0 0 0
500 1 30.805070310190214 33.97562305787675 2.2415989808940466 0 0 0
547 1 29.23877385749182 35.57657750584172 0.6798548338767658 0 0 0
549 1 32.413165914467434 35.5823375641476 0.7012000338761387 0 0 0
502 1 33.981577710746905 33.981577710746706 2.2645224237647126 0 0 0
551 1 35.58941843115423 35.58941843115389 0.7287087442045944 0 0 0
504 1 37.159421042352676 33.989274559517774 2.2933976101592854 0 0 0
530 1 2.3516581859365053 37.18196445910156 2.3516563045968226 0 0 0
532 1 5.507341184332156 37.174416871815076 2.32647011477618 0 0 0
534 1 8.663465248446782 37.167059678568364 2.30238795306882 0 0 0
536 1 11.820516174529297 37.16029673398118 2.280582777718121 0 0 0
538 1 14.979042887646962 37.154563742275535 2.2623122264308386 0 0 0
540 1 18.139664241347507 37.150293037543435 2.2489307316841716 0 0 0
542 1 21.303015914117303 37.14786792678686 2.2418264809405515 0 0 0
544 1 24.46963503604159 37.14755563002466 2.2422735684102713 0 0 0
546 1 27.639776240425874 37.14946012040171 2.251144732409867 0 0 0
548 1 30.813232753710587 37.153502808447485 2.2685211266407688 0 0 0
550 1 33.989274559517895 37.15942104235258 2.2933976101594373 0 0 0
552 1 37.16680460850767 37.16680460850788 2.3236661324551497 0 0 0
1153 1 0.779983432735064 0.7799834327348824 3.9515657613598716 0 0 0
1155 1 3.9394133024557263 0.7674394746884592 3.9394112966991313 0 0 0
1157 1 7.099380715833532 0.7553660148402386 3.9279583827066005 0 0 0
1159 1 10.260291841827074 0.7446188826145607 3.9180382234693263 0 0 0
1161 1 13.422488900376951 0.7359535719662603 3.910373389839101 0 0 0
1163 1 16.5862128775635 0.7299669042208484 3.9055167128415342 0 0 0
1165 1 19.751558948173585 0.7270475297051767 3.9037991799945537 0 0 0
1167 1 22.91848859623709 0.7273394881556827 3.90529125614374 0 0 0
1169 1 26.086795698715346 0.730745683829023 3.9098083865407336 0 0 0
1171 1 29.25617964011115 0.7369517037870447 3.916940597315305 0 0 0
1173 1 32.426295384091326 0.7454846615199024 3.9261221734450316 0 0 0
1175 1 35.59680355628123 0.7557687605259373 3.9367020307503755 0 0 0
1201 1 0.7674394746880863 3.939413302455987 3.9394112966991046 0 0 0
1203 1 3.9264535254152926 3.926453525414997 3.926451725704472 0 0 0
1205 1 7.0861188447821 3.913796810838078 3.913795185790836 0 0 0
1207 1 10.246872920620719 3.902338568058683 3.902337078601698 0 0 0
1209 1 13.409095405598295 3.892893922663582 3.8928925603882085 0 0 0
1211 1 16.573061643412363 3.8861366527856784 3.8861353518057116 0 0 0
1213 1 19.738896747493953 3.8825413749798794 3.882540065197109 0 0 0
1215 1 22.906535392347237 3.8823331452928116 3.8823318129749156 0 0 0
1217 1 26.075725101473324 3.8854612328689653 3.8854598473740327 0 0 0
1219 1 29.24607352164827 3.8916115500890043 3.8916100601571366 0 0 0
1221 1 32.417136183375376 3.900270852734869 3.9002691851604574 0 0 0
1223 1 35.588491825275156 3.91080611254941 3.9108042507649103 0 0 0
1249 1 0.7553660148403375 7.099380715833689 3.92795838270668 0 0 0
1251 1 3.913796810837963 7.086118844782037 3.913795185790959 0 0 0
1253 1 7.072969893454422 7.072969893454484 3.899548991711213 0 0 0
1255 1 10.23336098333275 7.060852424059932 3.8861926968900806 0 0 0
1257 1 13.395397341889906 7.050628576535187 3.874648466239881 0 0 0
1259 1 16.559406639844603 7.043044223812425 3.8657303242965564 0 0 0
1261 1 19.725559747305184 7.038667395034634 3.8600839611888227 0 0 0
1263 1 22.893809997928 7.037821903177453 3.8581226558928647 0 0 0
1265 1 26.063872119983756 7.040530163738274 3.85996133754578 0 0 0
1267 1 29.23526142431048 7.04649641040287 3.865389134003066 0 0 0
1269 1 32.407412786689136 7.055170791576876 3.873917811137497 0 0 0
1271 1 35.57980270079028 7.065860764883161 3.884883117019589 0 0 0
1297 1 0.7446188826147828 10.260291841826987 3.918038223469388 0 0 0
1299 1 3.9023385680585085 10.246872920620849 3.90233707860181 0 0 0
1301 1 7.060852424060062 10.233360983332718 3.886192696890055 0 0 0
1303 1 10.22067766683789 10.220677666837803 3.870660579028496 0 0 0
1305 1 13.382295608028011 10.209715071091116 3.8567757614425293 0 0 0
1307 1 16.546098063870872 10.201279624966393 3.845500224244783 0 0 0
1309 1 19.712325524166644 10.196030440672946 3.8376654537579356 0 0 0
1311 1 22.88098901058542 10.19440439899137 3.8339005484386934 0 0 0
1313 1 26.051810215960288 10.196525355369255 3.834523899141795 0 0 0
1315 1 29.224232121720615 10.202148861351873 3.8394560964936053 0 0 0
1317 1 32.39755549092717 10.210702300176463 3.848217135500957 0 0 0
1319 1 35.571130503803175 10.221434152028744 3.8600625380653955 0 0 0
1345 1 0.7359535719662782 13.422488900377058 3.910373389839116 0 0 0
1347 1 3.892893922663637 13.409095405598327 3.8928925603881726 0 0 0
1349 1 7.050628576535199 13.395397341889957 3.8746484662397904 0 0 0
1351 1 10.209715071091074 13.382295608028105 3.8567757614424263 0 0 0
1353 1 13.37069086486589 13.370690864865823 3.8404186583277373 0 0 0
1355 1 16.534020029736514 13.36143377875953 3.8266846256784492 0 0 0
1357 1 19.70003148841271 13.35526321735456 3.816591871103437 0 0 0
1359 1 22.86882953561321 13.352732256321378 3.810996834894834 0 0 0
1361 1 26.040198738795198 13.35409400468416 3.810461508275127 0 0 0
1363 1 29.213552206014015 13.359194284319859 3.8150796460630367 0 0 0
1365 1 32.38806260489939 13.367466762941483 3.824391383818816 0 0 0
1367 1 35.562925254662204 13.378112081972347 3.8375399604623426 0 0 0
1393 1 0.729966904220852 16.586212877563284 3.9055167128413917 0 0 0
1395 1 3.886136652785716 16.573061643412423 3.886135351805907 0 0 0
1397 1 7.043044223812262 16.559406639844617 3.8657303242962584 0 0 0
1399 1 10.201279624966586 16.546098063870893 3.845500224244718 0 0 0
1401 1 13.361433778759576 16.534020029736652 3.826684625678536 0 0 0
1403 1 16.524047745355443 16.524047745355382 3.81052333418875 0 0 0
1405 1 19.689543444937605 16.5169800013536 3.7982120573787292 0 0 0
1407 1 22.858159450833348 16.513481596062604 3.7908296618291333 0 0 0
1409 1 26.02978803458662 16.513944094208576 3.789201993267767 0 0 0
1411 1 29.203879148972955 16.518342222685487 3.7936507838872684 0 0 0
1413 1 32.37951592201676 16.52616484069432 3.8037854230754298 0 0 0
1415 1 35.5556977753115 16.536581630766072 3.8186113878196877 0 0 0
1441 1 0.7270475297051121 19.751558948173688 3.903799179994575 0 0 0
1443 1 3.8825413749797004 19.73889674749396 3.8825400651971016 0 0 0
1445 1 7.038667395034712 19.7255597473051 3.860083961188761 0 0 0
1447 1 10.196030440672928 19.712325524166562 3.8376654537580572 0 0 0
1449 1 13.355263217354578 19.7000314884128 3.8165918711035123 0 0 0
1451 1 16.516980001353488 19.68954344493754 3.7982120573784757 0 0 0
1453 1 19.681717795950355 19.68171779595037 3.7838767591356657 0 0 0
1455 1 22.84984373346185 19.677299310155803 3.7748797507094825 0 0 0
1457 1 26.0214043328259 19.676811423643702 3.7723030632249346 0 0 0
1459 1 29.195956667819733 19.680374680845556 3.7767321252259944 0 0 0
1461 1 32.372549530800455 19.68758059691364 3.787910688086449 0 0 0
1463 1 35.54998394910095 19.697620454976626 3.804741713038168 0 0 0
1489 1 0.7273394881556866 22.91848859623695 3.9052912561438298 0 0 0
1491 1 3.8823331452927694 22.906535392347 3.8823318129748414 0 0 0
1493 1 7.037821903177224 22.89380999792789 3.858122655892724 0 0 0
1495 1 10.194404398991514 22.88098901058536 3.833900548438748 0 0 0
1497 1 13.352732256321413 22.86882953561307 3.810996834894748 0 0 0
1499 1 16.513481596062498 22.85815945083348 3.7908296618291413 0 0 0
1501 1 19.6772993101558 22.849843733461714 3.7748797507093705 0 0 0
1503 1 22.844699165203398 22.844699165203348 3.7646344513465486 0 0 0
1505 1 26.015890197366414 22.843353896784503 3.7614104894950726 0 0 0
1507 1 29.190566007320083 22.846046504176478 3.766038855470201 0 0 0
1509 1 32.36781184259005 22.852502393388477 3.778443687775609 0 0 0
1511 1 35.54629979266631 22.86200262248363 3.797481459712931 0 0 0
1537 1 0.7307456838291418 26.08679569871574 3.909808386540504 0 0 0
1539 1 3.8854612328687304 26.075725101473623 3.8854598473740514 0 0 0
1541 1 7.040530163738407 26.063872119983817 3.8599613375458532 0 0 0
1543 1 10.196525355369145 26.051810215960373 3.8345238991417205 0 0 0
1545 1 13.354094004684306 26.040198738795116 3.81046150827524 0 0 0
1547 1 16.513944094208547 26.029788034586574 3.7892019932677425 0 0 0
1549 1 19.676811423643677 26.02140433282601 3.7723030632247885 0 0 0
1551 1 22.84335389678454 26.015890197366502 3.7614104894950664 0 0 0
1553 1 26.013948030734404 26.01394803073454 3.758058290778553 0 0 0
1555 1 29.18841163255551 26.015892725351485 3.7632553206126143 0 0 0
1557 1 32.36589478077553 26.021546235703468 3.7770529403596296 0 0 0
1559 1 35.5450695712797 26.030344471167975 3.7983340424234084 0 0 0
1585 1 0.7369517037869839 29.25617964011086 3.9169405973152975 0 0 0
1587 1 3.8916115500892143 29.246073521648036 3.891610060157109 0 0 0
1589 1 7.046496410402908 29.23526142431058 3.865389134003064 0 0 0
1591 1 10.202148861351855 29.224232121720338 3.83945609649362 0 0 0
1593 1 13.359194284319889 29.213552206013986 3.815079646063116 0 0 0
1595 1 16.51834222268558 29.203879148972963 3.7936507838873497 0 0 0
1597 1 19.680374680845464 29.195956667819676 3.7767321252260038 0 0 0
1599 1 22.846046504176538 29.190566007319955 3.7660388554703603 0 0 0
1601 1 26.015892725351495 29.188411632555468 3.763255320612678 0 0 0
1603 1 29.18986488406574 29.189864884065553 3.7695331860959307 0 0 0
1605 1 32.36720372220277 29.194836110675972 3.784966255431316 0 0 0
1607 1 35.546552555231855 29.202836061588716 3.8083639688403768 0 0 0
1633 1 0.7454846615196036 32.42629538409145 3.9261221734448513 0 0 0
1635 1 3.9002708527350225 32.41713618337534 3.9002691851606572 0 0 0
1637 1 7.055170791576856 32.407412786689214 3.8739178111374732 0 0 0
1639 1 10.210702300176301 32.39755549092732 3.8482171355009838 0 0 0
1641 1 13.367466762941719 32.38806260489965 3.8243913838188863 0 0 0
1643 1 16.52616484069416 32.379515922016786 3.8037854230754844 0 0 0
1645 1 19.687580596913907 32.37254953080041 3.787910688086315 0 0 0
1647 1 22.852502393388274 32.36781184259005 3.7784436877755936 0 0 0
1649 1 26.02154623570353 32.36589478077555 3.777052940359666 0 0 0
1651 1 29.194836110675986 32.36720372220299 3.7849662554313532 0 0 0
1653 1 32.37167345604884 32.37167345604897 3.802241180474188 0 0 0
1655 1 35.550775916440166 32.37894669542183 3.827636281905903 0 0 0
1681 1 0.7557687605259595 35.596803556281266 3.936702030750296 0 0 0
1683 1 3.910806112549305 35.58849182527517 3.9108042507652048 0 0 0
1685 1 7.065860764883187 35.57980270079016 3.8848831170196436 0 0 0
1687 1 10.221434152028792 35.57113050380302 3.860062538065297 0 0 0
1689 1 13.378112081972294 35.56292525466215 3.837539960462334 0 0 0
1691 1 16.53658163076601 35.55569777531151 3.8186113878196983 0 0 0
1693 1 19.69762045497657 35.54998394910098 3.8047417130381693 0 0 0
1695 1 22.86200262248381 35.546299792666225 3.7974814597129427 0 0 0
1697 1 26.030344471167762 35.545069571279576 3.7983340424232828 0 0 0
1699 1 29.20283606158909 35.54655255523163 3.8083639688404167 0 0 0
1701 1 32.378946695421895 35.55077591644044 3.8276362819061416 0 0 0
1703 1 35.55742630251891 35.55742630251896 3.854716096664872 0 0 0
2305 1 0.7687384021643786 0.7687384021646 7.111455838588069 0 0 0
1154 1 2.347247038252423 2.347247038252111 5.5190617715647265 0 0 0
2307 1 3.9279603281347746 0.7553661205371771 7.099378764647408 0 0 0
2309 1 7.087822662269917 0.742089180362488 7.087820801639605 0 0 0
1156 1 5.506582553079601 2.3340051091381007 5.506580709937882 0 0 0
1158 1 8.666788343834916 2.3214212765622504 5.494952421170339 0 0 0
2311 1 10.248751929578514 0.7298217691272614 7.077619473967959 0 0 0